ITEM: TIMESTEP
0
ITEM: NUMBER OF ATOMS
3
ITEM: BOX BOUNDS pp pp pp
0.000e+00 99.40694944512946
0.000e+00 63.306940285361975
0.000e+00 46.77539839116904
ITEM: ATOMS 