ITEM: TIMESTEP
0
ITEM: NUMBER OF ATOMS
3
ITEM: BOX BOUNDS pp pp pp
0.000e+00 99.40694944512946
0.000e+00 63.306940285361975
0.000e+00 46.77539839116904
ITEM: ATOMS id mol type x y z
0 100 1 96.08674687334859 51.19916875110093 27.441251423874103
1 100 1 74.74796841054545 50.972122306382474 28.021566026657265
2 100 1 65.95468081733308 25.586531031648168 22.53181058070577
3 100 1 28.60716299688803 23.141656156420645 21.61136967882097
4 100 1 89.81286512829546 36.23336339615994 42.22150689918384
5 100 1 78.33698391169044 57.388348482179545 29.365962127884444
6 100 1 27.472722740884265 40.04503446656096 2.6716774117785214
7 100 1 28.31706024308613 20.823393811285296 33.14880541365744
8 100 1 57.306546532793135 60.093575186424744 40.26120092772003
9 100 1 66.91488861487873 43.53655510539603 2.483345546356643
10 100 1 28.62014062591744 25.498250895425983 23.17239093417885
11 100 1 48.22796271504902 49.05842193646879 6.537576947918501
12 100 1 30.9700321766191 37.20949081087428 0.44633527097645465
13 100 1 56.872851858375896 26.98647360695203 2.254028125183489
14 100 1 68.69531518994773 49.890343843579345 38.39575027890317
15 100 1 66.26984727849215 57.20309359403441 23.097469555516412
16 100 1 45.6919294228172 28.22686277963713 17.57329792730902
17 100 1 65.99453332159001 42.99682948740532 24.077754858786918
18 100 1 22.1167697727673 17.755405260994657 26.585062004579882
19 100 1 37.59855222828958 48.19793458986554 18.88234789501497
20 100 1 50.6069443367976 13.529634313898184 34.79296782338089
21 100 1 39.43164124244024 32.56878128119311 6.82514009746932
22 100 1 76.69137255592742 47.10941794374963 16.77328876754154
23 100 1 87.84106775879278 56.3788008337737 19.78418196230403
24 100 1 72.48248969526158 43.73503787211555 19.973513181844865
25 100 1 66.03667218601372 22.547383477188657 44.744857612588795
26 100 1 71.97589842052726 57.605348423463084 28.84952698021255
27 100 1 46.008014326815804 34.126897246198105 4.360849568434031
28 100 1 63.57035875755974 41.562211848981256 35.69562286418882
29 100 1 74.15207004873464 55.35390869590746 30.626937408255525
30 100 1 52.6572021020492 13.420817450531384 20.815903000411012
31 100 1 43.51261881275321 13.960762374493568 33.4135855205214
32 100 1 48.54777382420292 40.465932299923665 2.5829483295167637
33 100 1 42.261346133521215 31.21656144677352 34.001857084140674
34 100 1 78.56045352592331 20.535435676120017 46.77539839116904
35 100 1 51.770222183077905 36.45305225764782 2.2442066819329454
36 100 1 85.85154594562853 38.832197463449 22.360978216193995
37 100 1 39.79591908872057 7.223777288473958 20.128458105807056
38 100 1 44.87783183606364 46.93796729493276 8.457611355763019
39 100 1 50.71597762902941 24.732119429276022 18.959378897304912
40 100 1 16.401754917503375 25.435681404497675 3.2915447712993946
41 100 1 21.73436110621807 8.782065468850917 19.39811596500499
42 100 1 56.767234219951845 11.511422464916913 23.76926980212553
43 100 1 54.166595326169904 47.11223650989372 19.882001702777284
44 100 1 90.68819628911983 62.271524103106096 44.6718633668017
45 100 1 53.396182549468605 20.549315718395864 2.505078034172978
46 100 1 76.50960389877281 32.82237367154013 39.696856496976096
47 100 1 48.782048206212195 14.448867418237331 17.762939698197403
48 100 1 24.354056250366973 25.33892713287534 17.926223885855205
49 100 1 75.75913487170452 50.25861540719863 29.248465562797247
50 100 1 68.02994374963302 28.179416769420467 38.77639498561446
51 100 1 64.41909876108272 63.306940285361975 45.0162250014679
52 100 1 49.40437889730491 43.37802695085432 25.85291562444953
53 100 1 61.7006802301685 24.644366801714515 28.809944865245726
54 100 1 47.93211942927602 16.733807703599314 40.17735077212142
55 100 1 82.13153842992187 29.147316305560445 45.368271504902815
56 100 1 44.79715847572074 52.25422329869061 12.386707239739296
57 100 1 15.262806529270152 8.646908695907461 17.717293934589865
58 100 1 53.03973595208736 35.926970700487345 13.24670318830368
59 100 1 57.246985614467725 62.11772045094238 38.171560859608945
60 100 1 28.452203217661904 15.74399888438729 39.89612688626621
61 100 1 86.21480312371558 55.99937085315013 44.645119429276015
62 100 1 40.06753555281544 35.77381228348306 35.61265556925605
63 100 1 69.9941963478363 18.555629734014442 13.319638952498384
64 100 1 28.823768069990013 16.506539604251067 40.415266396570956
65 100 1 11.436551699841464 1.7526561564206442 4.204459808584345
66 100 1 47.29572961070988 22.46304022077388 45.00441905936233
67 100 1 13.592638952498385 4.260365686101814 2.615204920439199
68 100 1 58.27165903352709 60.30125083670952 42.14842769068169
69 100 1 50.5331371616464 38.945442017497506 24.39343397334272
70 100 1 45.85192707415888 16.061765780048145 30.930461570078084
71 100 1 29.225609652985725 8.27801379836768 0.5313972755563383
72 100 1 90.35810962362748 41.04215841700427 29.197836944395508
73 100 1 30.821265750689914 30.66146497563266 19.569291057483408
74 100 1 57.838602783160106 50.98512459632435 30.21541389231401
75 100 1 99.40694944512946 45.71154477129939 45.17886107685983
76 100 1 57.36095349656508 16.266222770242496 18.007056837531557
77 100 1 69.17396265633256 35.54834214080206 27.595034466560968
78 100 1 29.283705478245547 18.13116763548822 28.723086665492332
79 100 1 57.17311713933415 55.85935018495683 23.455441430332918
80 100 1 57.584774411367505 8.693507427631964 0.48810504374376135
81 100 1 51.76063431389818 41.206855909811516 29.049561388057064
82 100 1 37.93530937701836 17.441413892314014 34.99703558217367
83 100 1 11.973281251834887 6.051508601961129 7.286612530092184
84 100 1 66.68168310727496 39.19052580588338 8.220916211614112
85 100 1 72.21882432035699 30.8129396981974 33.135186013739634
86 100 1 90.45243109623627 52.23633579942457 43.23524285127121
87 100 1 63.12074975045503 52.30052927015442 13.423411602372141
88 100 1 47.89352809582525 10.263396688391753 2.210146967294932
89 100 1 77.14627902060944 33.82765386647877 7.1963346838118705
90 100 1 50.15360272444366 20.492114790675824 35.680985086019604
91 100 1 38.06375315600963 17.22080371088016 29.54257119370559
92 100 1 28.522813457812223 4.5061842522459035 8.026792789618929
93 100 1 57.956934531149074 8.163907580294756 2.3076337267336027
94 100 1 40.37563660384004 33.882509189125706 38.64758499207328
95 100 1 51.68124337971933 24.990632023956312 18.00858722329869
96 100 1 22.20747642534202 28.520725030826135 10.81469919558452
97 100 1 70.27562345135341 14.527385179965943 34.35820151488462
98 100 1 52.89791615289765 23.67320092772004 27.767226762961652
99 100 1 18.21508091127943 7.845421936468792 19.31997017203922
100 100 1 44.14262744407256 40.28412230638247 34.958060830250716
101 100 1 73.87364235805295 45.006173330984666 1.063243379719335
102 100 1 28.788578650695786 33.414078092889426 11.76089319476249
