ITEM: TIMESTEP
0
ITEM: NUMBER OF ATOMS
4
ITEM: BOX BOUNDS pp pp pp
0.0 41.4008
0.0 41.4008
0.0 41.4008
ITEM: ATOMS id mol type x y z
3651 445 8 24.0152 18.4258 28.5036
3650 445 7 24.1806 18.2153 26.9874
3649 445 6 23.2093 18.3997 26.2031
3652 445 9 25.6279 18.0718 26.446
